 Gaussian 94, Revision D.1,
 Gaussian 94:  SGI-G94RevD.1  1-Feb-1996

 ----------------------------------------------------------------------
 # B3LYP/6-31G* OPT(ReadFC,VTight) Freq=NoRaman NoSym Geom=AllCheck Gue
 ss=Check
 ----------------------------------------------------------------------

 SCF Done:  E(RB+HF-LYP) =  -79.8303916092     A.U. after    7 cycles
 SCF Done:  E(RB+HF-LYP) =  -79.8304168803     A.U. after    6 cycles
 SCF Done:  E(RB+HF-LYP) =  -79.8304168919     A.U. after    5 cycles
 Optimization completed.
    -- Stationary point found.
 Normal termination of Gaussian 94

 ------------------------------------------------
 #N Geom=AllCheck Guess=Read RB3LYP/6-31G(d) Freq
 ------------------------------------------------

                   Input orientation:
 ----------------------------------------------------------
 Center     Atomic              Coordinates (Angstroms)
 Number     Number             X           Y           Z
 ----------------------------------------------------------
    1          1           0.017890    0.030959   -0.005497
    2          6          -0.000121   -0.000196    1.090072
    3          1           1.038799    0.030951    1.438302
    4          6          -0.721600   -1.249860    1.600261
    5          1          -0.492598    0.915097    1.438321
    6          1          -0.229122   -2.165153    1.252012
    7          1          -1.760520   -1.281007    1.252031
    8          1          -0.739611   -1.281015    2.695830
 ----------------------------------------------------------

 SCF Done:  E(RB+HF-LYP) =  -79.8304168919     A.U. after    1 cycles

                     1                      2                      3
                    AU                     AU                     AU
 Frequencies --   312.9189               831.7378               832.4266
 Red. masses --     1.0078                 1.0575                 1.0576
 Frc consts  --     0.0581                 0.4310                 0.4318
 IR Inten    --     0.0000                 4.6669                 4.6731
 Raman Activ --     0.0000                 0.0000                 0.0000

                     4                      5                      6
                    AG                     AG                     AG
 Frequencies --  1010.0217              1235.4014              1235.5487
 Red. masses --     3.2493                 1.4648                 1.4648
 Frc consts  --     1.9530                 1.3172                 1.3175
 IR Inten    --     0.0000                 0.0000                 0.0000
 Raman Activ --     0.0000                 0.0000                 0.0000

                     7                      8                      9
                    AU                     AG                     AG
 Frequencies --  1433.0238              1454.2083              1531.7465
 Red. masses --     1.1980                 1.2572                 1.0199
 Frc consts  --     1.4495                 1.5664                 1.4098
 IR Inten    --     0.2625                 0.0000                 0.0000
 Raman Activ --     0.0000                 0.0000                 0.0000

                    10                     11                     12
                    AG                     AU                     AU
 Frequencies --  1532.1621              1537.4225              1537.8152
 Red. masses --     1.0198                 1.0620                 1.0619
 Frc consts  --     1.4105                 1.4790                 1.4796
 IR Inten    --     0.0000                 7.4765                 7.4730
 Raman Activ --     0.0000                 0.0000                 0.0000

                    13                     14                     15
                    AG                     AU                     AG
 Frequencies --  3047.0774              3047.9938              3098.3069
 Red. masses --     1.0367                 1.0343                 1.1020
 Frc consts  --     5.6711                 5.6615                 6.2328
 IR Inten    --     0.0000                59.0363                 0.0000
 Raman Activ --     0.0000                 0.0000                 0.0000

                    16                     17                     18
                    AG                     AU                     AU
 Frequencies --  3098.5764              3122.6553              3122.9498
 Red. masses --     1.1020                 1.1030                 1.1030
 Frc consts  --     6.2341                 6.3370                 6.3383
 IR Inten    --     0.0000                73.8323                73.8101
 Raman Activ --     0.0000                 0.0000                 0.0000

 - Thermochemistry -
 -------------------
 Temperature   298.150 Kelvin.  Pressure   1.00000 Atm.
 Atom  1 has atomic number  1 and mass   1.00783

 Molecular mass:    30.04695 amu.
 Principal axes and moments of inertia in atomic units:
                           1         2         3
     EIGENVALUES --    22.50727  90.72050  90.72093
           X            0.47140   0.61874   0.62845
           Y            0.81649  -0.57553  -0.04581
           Z           -0.33334  -0.53472   0.77650
 THIS MOLECULE IS AN ASYMMETRIC TOP.
 ROTATIONAL SYMMETRY NUMBER  1.
 ROTATIONAL TEMPERATURES (KELVIN)      3.84824     0.95473     0.95472
 ROTATIONAL CONSTANTS (GHZ)           80.18482    19.89342    19.89333
 Zero-point vibrational energy     197515.4 (Joules/Mol)
                                   47.20732 (Kcal/Mol)
 WARNING-- EXPLICIT CONSIDERATION OF   1 DEGREES OF FREEDOM AS
           VIBRATIONS MAY CAUSE SIGNIFICANT ERROR
 VIBRATIONAL TEMPERATURES:    450.22  1196.68  1197.67  1453.19  1777.46
          (KELVIN)           1777.67  2061.79  2092.27  2203.83  2204.43
                             2212.00  2212.56  4384.04  4385.36  4457.75
                             4458.13  4492.78  4493.20

 Zero-point correction=                           0.075230 (Hartree/Particle)
 Thermal correction to Energy=                    0.078700
 Thermal correction to Enthalpy=                  0.079644
 Thermal correction to Gibbs Free Energy=         0.052118
 Sum of electronic and zero-point Energies=            -79.755187
 Sum of electronic and thermal Energies=               -79.751717
 Sum of electronic and thermal Enthalpies=             -79.750773
 Sum of electronic and thermal Free Energies=          -79.778299

                     E (Thermal)             CV                S
                      KCAL/MOL        CAL/MOL-KELVIN    CAL/MOL-KELVIN
 TOTAL                   49.385              9.990             57.933
 ELECTRONIC               0.000              0.000              0.000
 TRANSLATIONAL            0.889              2.981             36.134
 ROTATIONAL               0.889              2.981             19.855
 VIBRATIONAL             47.607              4.028              1.944
 VIBRATION  1             0.701              1.649              1.347
                       Q            LOG10(Q)             LN(Q)
 TOTAL BOT       0.106548D-23        -23.972456        -55.501792
 TOTAL V=0       0.427114D+11         10.630544         24.174561
 VIB (BOT)       0.337804D-34        -34.471335        -79.373181
 VIB (BOT)  1    0.603263D+00         -0.219493         -0.505401
 VIB (V=0)       0.135415D+01          0.131665          0.303171
 VIB (V=0)  1    0.128353D+01          0.108408          0.249618
 ELECTRONIC      0.100000D+01          0.000000          0.000000
 TRANSLATIONAL   0.647383D+07          6.811161         15.683278
 ROTATIONAL      0.487211D+04          3.687717          8.491283
 -------------------------------------------------------------------
 Center     Atomic                   Forces (Hartrees/Bohr)
 Number     Number              X              Y              Z
 -------------------------------------------------------------------
    1          1           0.000001336   -0.000001606   -0.000000446
    2          6          -0.000000033   -0.000000592   -0.000000279
    3          1          -0.000000202    0.000000425    0.000000592
    4          6           0.000000032    0.000000592    0.000000279
    5          1          -0.000000329    0.000000138   -0.000002147
    6          1           0.000000329   -0.000000138    0.000002148
    7          1           0.000000202   -0.000000425   -0.000000592
    8          1          -0.000001336    0.000001606    0.000000446
 -------------------------------------------------------------------
 Cartesian Forces:  Max     0.000002148 RMS     0.000000927
 Internal  Forces:  Max     0.000000212 RMS     0.000000060

 GradGradGradGradGradGradGradGradGradGradGradGradGradGradGradGradGradGrad
 Berny optimization.
 Search for a local minimum.
 Step number   1 out of a maximum of  38
 All quantities printed in internal units (Hartrees-Bohrs-Radians)
 Second derivative matrix not updated -- analytic derivatives used.
     Eigenvalues ---    0.00232   0.04649   0.04651   0.04868   0.04871
     Eigenvalues ---    0.12426   0.12580   0.12608   0.12863   0.18087
     Eigenvalues ---    0.18092   0.30695   0.33488   0.33494   0.33750
     Eigenvalues ---    0.33756   0.34585   0.348091000.000001000.00000
     Eigenvalues --- 1000.000001000.000001000.000001000.000001000.00000
     Eigenvalues --- 1000.000001000.000001000.00000
 Angle between quadratic step and forces=  90.00 degrees.
 Linear search not attempted -- first point.
 Iteration  1 RMS(Cart)=  0.00000036 RMS(Int)=  0.00000001
 TrRot=  0.000000  0.000000  0.000000  0.000000  0.000000  0.000000
 Variable       Old X    -DE/DX   Delta X   Delta X   Delta X     New X
                                 (Linear)    (Quad)   (Total)
    R1        2.07144   0.00000   0.00000   0.00000   0.00000   2.07144
    R2        2.07146   0.00000   0.00000   0.00000   0.00000   2.07146
    R3        2.89226   0.00000   0.00000   0.00000   0.00000   2.89226
    R4        2.07145   0.00000   0.00000   0.00000   0.00000   2.07145
    R5        2.07145   0.00000   0.00000   0.00000   0.00000   2.07145
    R6        2.07146   0.00000   0.00000   0.00000   0.00000   2.07146
    R7        2.07144   0.00000   0.00000   0.00000   0.00000   2.07144
    A1        1.87667   0.00000   0.00000   0.00000   0.00000   1.87667
    A2        1.94348   0.00000   0.00000   0.00000   0.00000   1.94348
    A3        1.94344   0.00000   0.00000   0.00000   0.00000   1.94344
    A4        1.87672   0.00000   0.00000   0.00000   0.00000   1.87672
    A5        1.87670   0.00000   0.00000   0.00000   0.00000   1.87670
    A6        1.94345   0.00000   0.00000   0.00000   0.00000   1.94345
    A7        1.94345   0.00000   0.00000   0.00000   0.00000   1.94345
    A8        1.94344   0.00000   0.00000   0.00000   0.00000   1.94344
    A9        1.87670   0.00000   0.00000   0.00000   0.00000   1.87670
   A10        1.94348   0.00000   0.00000   0.00000   0.00000   1.94348
   A11        1.87672   0.00000   0.00000   0.00000   0.00000   1.87672
   A12        1.87667   0.00000   0.00000   0.00000   0.00000   1.87667
    D1        1.04716   0.00000   0.00000   0.00000   0.00000   1.04716
    D2       -1.04721   0.00000   0.00000   0.00000   0.00000  -1.04721
    D3        3.14159   0.00000   0.00000   0.00000   0.00000   3.14159
    D4       -1.04723   0.00000   0.00000   0.00000   0.00000  -1.04723
    D5        3.14159   0.00000   0.00000   0.00000   0.00000   3.14159
    D6        1.04721   0.00000   0.00000   0.00000   0.00000   1.04721
    D7       -3.14159   0.00000   0.00000   0.00000   0.00000  -3.14159
    D8        1.04723   0.00000   0.00000   0.00000   0.00000   1.04723
    D9       -1.04716   0.00000   0.00000   0.00000   0.00000  -1.04716
         Item               Value     Threshold  Converged?
 Maximum Force            0.000000     0.000002     YES
 RMS     Force            0.000000     0.000001     YES
 Maximum Displacement     0.000001     0.000006     YES
 RMS     Displacement     0.000000     0.000004     YES
 Predicted change in Energy=-3.673086D-13
 Optimization completed.
    -- Stationary point found.
                         ----------------------------
                         !   Optimized Parameters   !
                         ! (Angstroms and Degrees)  !
 ------------------------                            -------------------------
 ! Name  Definition              Value          Derivative Info.             !
 -----------------------------------------------------------------------------
 ! R1    R(2,1)                  1.0962         -DE/DX =    0.               !
 ! R2    R(3,2)                  1.0962         -DE/DX =    0.               !
 ! R3    R(4,2)                  1.5305         -DE/DX =    0.               !
 ! R4    R(5,2)                  1.0962         -DE/DX =    0.               !
 ! R5    R(6,4)                  1.0962         -DE/DX =    0.               !
 ! R6    R(7,4)                  1.0962         -DE/DX =    0.               !
 ! R7    R(8,4)                  1.0962         -DE/DX =    0.               !
 ! A1    A(1,2,3)              107.5253         -DE/DX =    0.               !
 ! A2    A(1,2,4)              111.3532         -DE/DX =    0.               !
 ! A3    A(3,2,4)              111.3509         -DE/DX =    0.               !
 ! A4    A(1,2,5)              107.5283         -DE/DX =    0.               !
 ! A5    A(3,2,5)              107.5272         -DE/DX =    0.               !
 ! A6    A(4,2,5)              111.3513         -DE/DX =    0.               !
 ! A7    A(2,4,6)              111.3513         -DE/DX =    0.               !
 ! A8    A(2,4,7)              111.3509         -DE/DX =    0.               !
 ! A9    A(6,4,7)              107.5272         -DE/DX =    0.               !
 ! A10   A(2,4,8)              111.3532         -DE/DX =    0.               !
 ! A11   A(6,4,8)              107.5283         -DE/DX =    0.               !
 ! A12   A(7,4,8)              107.5253         -DE/DX =    0.               !
 ! D1    D(6,4,2,1)             59.9976         -DE/DX =    0.               !
 ! D2    D(6,4,2,3)            -60.0007         -DE/DX =    0.               !
 ! D3    D(6,4,2,5)            180.             -DE/DX =    0.               !
 ! D4    D(7,4,2,1)            -60.0017         -DE/DX =    0.               !
 ! D5    D(7,4,2,3)            180.             -DE/DX =    0.               !
 ! D6    D(7,4,2,5)             60.0007         -DE/DX =    0.               !
 ! D7    D(8,4,2,1)           -180.             -DE/DX =    0.               !
 ! D8    D(8,4,2,3)             60.0017         -DE/DX =    0.               !
 ! D9    D(8,4,2,5)            -59.9976         -DE/DX =    0.               !
 -----------------------------------------------------------------------------
 GradGradGradGradGradGradGradGradGradGradGradGradGradGradGradGradGradGrad

 **********************************************************************

            Population analysis using the SCF density.

 **********************************************************************

 Orbital Symmetries:
       Occupied  (AG) (AU) (AG) (AU) (AU) (AU) (AG) (AG) (AG)
       Virtual   (AG) (AU) (AU) (AU) (AG) (AG) (AU) (AG) (AU) (AU)
                 (AG) (AG) (AU) (AU) (AU) (AG) (AG) (AG) (AU) (AG)
                 (AU) (AU) (AU) (AG) (AG) (AG) (AU) (AU) (AG) (AG)
                 (AU) (AG) (AU)
  The electronic state is 1-AG.
 Alpha  occ. eigenvalues --  -10.17237 -10.17215  -0.74741  -0.61196  -0.43008
 Alpha  occ. eigenvalues --   -0.43008  -0.36285  -0.34007  -0.34006
 Alpha virt. eigenvalues --    0.10478   0.15604   0.16368   0.16369   0.19023
 Alpha virt. eigenvalues --    0.19023   0.24255   0.51313   0.54375   0.54376
 Alpha virt. eigenvalues --    0.63680   0.63681   0.66852   0.88298   0.88299
 Alpha virt. eigenvalues --    0.90655   0.91964   0.91965   0.97929   1.06595
 Alpha virt. eigenvalues --    1.43938   1.52623   1.52624   1.93240   1.98088
 Alpha virt. eigenvalues --    1.98091   2.27060   2.27061   2.33314   2.33317
 Alpha virt. eigenvalues --    2.58722   4.14494   4.36591
          Condensed to atoms (all electrons):
              1          2          3          4          5          6
  1  H    0.574865   0.382768  -0.032371  -0.034555  -0.032367  -0.003627
  2  C    0.382768   5.012038   0.382766   0.376152   0.382768  -0.034559
  3  H   -0.032371   0.382766   0.574874  -0.034559  -0.032367  -0.003627
  4  C   -0.034555   0.376152  -0.034559   5.012038  -0.034559   0.382768
  5  H   -0.032367   0.382768  -0.032367  -0.034559   0.574862   0.004641
  6  H   -0.003627  -0.034559  -0.003627   0.382768   0.004641   0.574862
  7  H   -0.003627  -0.034559   0.004641   0.382766  -0.003627  -0.032367
  8  H    0.004641  -0.034555  -0.003627   0.382768  -0.003627  -0.032367
              7          8
  1  H   -0.003627   0.004641
  2  C   -0.034559  -0.034555
  3  H    0.004641  -0.003627
  4  C    0.382766   0.382768
  5  H   -0.003627  -0.003627
  6  H   -0.032367  -0.032367
  7  H    0.574874  -0.032371
  8  H   -0.032371   0.574865
 Total atomic charges:
              1
  1  H    0.144274
  2  C   -0.432820
  3  H    0.144270
  4  C   -0.432820
  5  H    0.144276
  6  H    0.144276
  7  H    0.144270
  8  H    0.144274
 Sum of Mulliken charges=   0.00000
 Atomic charges with hydrogens summed into heavy atoms:
              1
  1  H    0.000000
  2  C    0.000000
  3  H    0.000000
  4  C    0.000000
  5  H    0.000000
  6  H    0.000000
  7  H    0.000000
  8  H    0.000000
 Sum of Mulliken charges=   0.00000
 Electronic spatial extent (au):  <R**2>=   259.4729
 Charge=     0.0000 electrons
 Dipole moment (Debye):
    X=     0.0000    Y=     0.0000    Z=     0.0000  Tot=     0.0000
 Quadrupole moment (Debye-Ang):
   XX=   -14.8291   YY=   -15.0586   ZZ=   -14.7717
   XY=    -0.1988   XZ=     0.0810   YZ=     0.1406
 Octapole moment (Debye-Ang**2):
  XXX=    16.0537  YYY=    28.2362  ZZZ=   -59.6111  XYY=     5.6826
  XXY=     9.4121  XXZ=   -20.0061  XZZ=     5.5485  YZZ=     9.6109
  YYZ=   -20.4321  XYZ=    -0.3688
 Hexadecapole moment (Debye-Ang**3):
 XXXX=   -52.5356 YYYY=  -104.4840 ZZZZ=  -194.1792 XXXY=   -21.2819
 XXXZ=    27.3852 YYYX=   -23.7071 YYYZ=    47.5412 ZZZX=    26.2955
 ZZZY=    45.5465 XXYY=   -27.1034 XXZZ=   -42.5394 YYZZ=   -51.6201
 XXYZ=    15.8470 YYXZ=     9.2119 ZZXY=    -7.8637
 N-N= 4.210944473375D+01 E-N=-2.680248595652D+02  KE= 7.897501430833D+01
  Exact polarizability:  22.752   0.585  23.427  -0.239  -0.414  22.583
 Approx polarizability:  28.473  -0.478  27.920   0.195   0.338  28.610
 1\1\GINC-GANDALF3\Freq\RB3LYP\6-31G(d)\C2H6\PEO\25-Nov-1996\0\\#N GEOM
 =ALLCHECK GUESS=READ RB3LYP/6-31G(D) FREQ\\Basic Ethane minimum\\0,1\H
 ,0.0178900128,0.0309591516,-0.0054972515\C,-0.000121029,-0.0001958043,
 1.0900716871\H,1.0387988787,0.0309506344,1.4383023262\C,-0.7215998616,
 -1.2498603446,1.6002614682\H,-0.4925984142,0.9150969256,1.4383208258\H
 ,-0.2291224782,-2.1651530746,1.2520123273\H,-1.7605197676,-1.281006782
 9,1.2520308242\H,-0.7396109089,-1.2810153003,2.6958304067\\Version=SGI
 -G94RevD.1\State=1-AG\HF=-79.8304169\RMSD=2.814e-10\RMSF=9.267e-07\Dip
 ole=0.,0.,0.\DipoleDeriv=0.0499815,-0.0221326,0.0080687,-0.0221284,0.0
 244048,0.0139526,0.0209904,0.036372,-0.181008,0.1103871,-0.0130105,0.0
 053086,-0.0130145,0.0953271,0.009212,0.0053315,0.0092149,0.1141157,-0.
 1645063,-0.0416683,-0.0548227,-0.0205275,0.0244489,0.0162068,-0.067767
 ,0.0087349,0.0334525,0.1103871,-0.0130105,0.0053086,-0.0130145,0.09532
 71,0.009212,0.0053315,0.0092149,0.1141157,0.0041377,0.0768113,0.041445
 4,0.0556704,-0.1441808,-0.0393714,0.0414451,-0.0543218,0.0334397,0.004
 1377,0.0768113,0.0414454,0.0556704,-0.1441808,-0.0393714,0.0414451,-0.
 0543218,0.0334397,-0.1645063,-0.0416683,-0.0548227,-0.0205275,0.024448
 9,0.0162068,-0.067767,0.0087349,0.0334525,0.0499815,-0.0221326,0.00806
 87,-0.0221284,0.0244048,0.0139526,0.0209904,0.036372,-0.181008\Polar=2
 2.7519876,0.5853587,23.4273666,-0.2391854,-0.4139575,22.582673\PG=CI [
 X(C2H6)]\NImag=0\\0.04969903,0.00216464,0.05213386,-0.00334200,-0.0057
 6133,0.33827650,-0.05038172,0.00082717,0.00212620,0.55424778,0.0008320
 2,-0.04939413,0.00363892,-0.03572198,0.51318073,0.00181335,0.00309212,
 -0.31172991,0.01443608,0.02520797,0.56464453,0.00183478,0.00037412,-0.
 00004445,-0.28385083,-0.00312220,-0.08041924,0.30825955,0.00009170,-0.
 00099436,-0.00036088,-0.00257331,-0.04937667,-0.00181437,0.00611860,0.
 05212768,-0.03276226,0.00003262,-0.00976306,-0.08075206,-0.00200604,-0
 .07819087,0.08808091,-0.00010512,0.07964134,-0.00054560,-0.00001515,0.
 00026337,-0.10852444,-0.04652679,0.01907505,-0.01396819,-0.02838016,0.
 01262225,0.55424777,-0.00002718,-0.00055635,0.00045873,-0.04652679,-0.
 16241146,0.03294588,-0.00043853,-0.00056237,-0.00012826,-0.03572198,0.
 51318073,0.01735621,0.03006289,-0.00939762,0.01907505,0.03294588,-0.09
 513226,-0.00448001,-0.01000689,0.00401103,0.01443608,0.02520797,0.5646
 4453,-0.00050775,-0.00125500,-0.00029222,-0.10553947,0.10034821,0.0386
 4718,-0.01379754,0.02630966,0.01170737,0.00856249,-0.01534356,-0.00642
 862,0.11089727,-0.00097718,0.00132937,-0.00021537,0.09981592,-0.227838
 07,-0.07060007,-0.00011707,0.00133172,0.00098380,0.01257429,-0.0230416
 9,-0.00888753,-0.10782303,0.24962236,0.01640865,-0.02834736,-0.0097573
 1,0.03865025,-0.07097127,-0.07822370,-0.00499877,0.01062857,0.00354830
 ,-0.00642114,0.01085407,0.00401880,-0.04414857,0.07626085,0.07966981,0
 .00046564,0.00089470,-0.00029478,0.00856249,-0.01534356,-0.00642862,0.
 00086439,0.00053715,-0.00057636,-0.10553947,0.10034821,0.03864718,-0.0
 0094503,-0.00366813,0.00138600,0.11089727,0.00041218,0.00105401,0.0003
 7564,0.01257429,-0.02304169,-0.00888753,-0.00021699,0.00104648,-0.0005
 1116,0.09981592,-0.22783807,-0.07060007,-0.00366813,-0.00350420,0.0025
 9384,-0.10782303,0.24962236,-0.00072187,-0.00025781,0.00055287,-0.0064
 2114,0.01085407,0.00401880,-0.00015456,-0.00076088,0.00015648,0.038650
 25,-0.07097127,-0.07822370,0.00138600,0.00259384,0.00003476,-0.0441485
 7,0.07626085,0.07966981,0.00034620,0.00034439,0.00046311,-0.01396819,-
 0.00043853,-0.00448001,0.00031165,-0.00294232,0.00155301,-0.28385083,-
 0.00312220,-0.08041924,0.00086439,-0.00021699,-0.00015456,-0.01379754,
 -0.00011707,-0.00499877,0.30825955,0.00083869,0.00118943,-0.00007701,-
 0.02838016,-0.00056237,-0.01000689,-0.00294232,-0.00476192,0.00249659,
 -0.00257331,-0.04937667,-0.00181437,0.00053715,0.00104648,-0.00076088,
 0.02630966,0.00133172,0.01062857,0.00611860,0.05212768,0.00012715,-0.0
 0076244,0.00056112,0.01262225,-0.00012826,0.00401103,0.00155301,0.0024
 9659,0.00003566,-0.08075206,-0.00200604,-0.07819087,-0.00057636,-0.000
 51116,0.00015648,0.01170737,0.00098380,0.00354830,0.08808091,-0.000105
 12,0.07964134,-0.00091058,-0.00333488,0.00112076,-0.00054560,-0.000027
 18,0.01735621,0.00034620,0.00083869,0.00012715,-0.05038172,0.00083202,
 0.00181336,0.00046564,0.00041218,-0.00072187,-0.00050775,-0.00097718,0
 .01640865,0.00183478,0.00009170,-0.03276226,0.04969903,-0.00333488,-0.
 00476184,0.00194131,-0.00001515,-0.00055635,0.03006289,0.00034439,0.00
 118943,-0.00076244,0.00082717,-0.04939413,0.00309212,0.00089470,0.0010
 5401,-0.00025781,-0.00125500,0.00132937,-0.02834736,0.00037412,-0.0009
 9436,0.00003262,0.00216464,0.05213386,0.00112076,0.00194131,0.00125743
 ,0.00026337,0.00045873,-0.00939762,0.00046311,-0.00007701,0.00056112,0
 .00212620,0.00363892,-0.31172991,-0.00029478,0.00037564,0.00055287,-0.
 00029222,-0.00021537,-0.00975731,-0.00004445,-0.00036088,-0.00976306,-
 0.00334200,-0.00576133,0.33827650\\-0.00000134,0.00000161,0.00000045,0
 .00000003,0.00000059,0.00000028,0.00000020,-0.00000042,-0.00000059,-0.
 00000003,-0.00000059,-0.00000028,0.00000033,-0.00000014,0.00000215,-0.
 00000033,0.00000014,-0.00000215,-0.00000020,0.00000042,0.00000059,0.00
 000134,-0.00000161,-0.00000045\\\@

 WE THE UNWILLING
 LED BY THE UNQUALIFIED
 HAVE BEEN DOING THE UNBELIEVABLE SO LONG WITH SO LITTLE
 THAT WE NOW ATTEMPT THE IMPOSSIBLE WITH NOTHING.

                                    -- ANONYMOUS
 Job cpu time:  0 days  0 hours 31 minutes  0.1 seconds.
 File lengths (MBytes):  RWF=    5 Int=    0 D2E=    0 Chk=    2 Scr=    1
 Normal termination of Gaussian 94
