 Gaussian 94, Revision D.1,
 Gaussian 94:  SGI-G94RevD.1  1-Feb-1996

 ----------------------------------------------------------------------
 # B3LYP/6-31G* OPT(ReadFC,VTight,TS) Freq=NoRaman Geom=AllCheck Guess=
 Check
 ----------------------------------------------------------------------

 SCF Done:  E(RB+HF-LYP) =  -79.8259002096     A.U. after    7 cycles
 SCF Done:  E(RB+HF-LYP) =  -79.8259264402     A.U. after    6 cycles
 SCF Done:  E(RB+HF-LYP) =  -79.8259264529     A.U. after    5 cycles
 Optimization completed.
    -- Stationary point found.
 Normal termination of Gaussian 94

 ------------------------------------------------
 #N Geom=AllCheck Guess=Read RB3LYP/6-31G(d) Freq
 ------------------------------------------------

                   Standard orientation:
 ----------------------------------------------------------
 Center     Atomic              Coordinates (Angstroms)
 Number     Number             X           Y           Z
 ----------------------------------------------------------
    1          1           0.000000    1.016676    1.179218
    2          6           0.000000    0.000000    0.772390
    3          1           0.880467   -0.508338    1.179218
    4          6           0.000000    0.000000   -0.772390
    5          1          -0.880467   -0.508338    1.179218
    6          1           0.880467   -0.508338   -1.179218
    7          1           0.000000    1.016676   -1.179218
    8          1          -0.880467   -0.508338   -1.179218
 ----------------------------------------------------------

 SCF Done:  E(RB+HF-LYP) =  -79.8259264529     A.U. after    1 cycles
 ******    1 imaginary frequencies (negative signs) ******

                     1                      2                      3
                    A1"                    E'                     E'
 Frequencies --  -304.8914               911.4223               911.4223
 Red. masses --     1.0078                 1.0595                 1.0595
 Frc consts  --     0.0552                 0.5186                 0.5186
 IR Inten    --     0.0000                 4.4413                 4.4413
 Raman Activ --     0.0000                 0.0000                 0.0000

                     4                      5                      6
                    A1'                    E"                     E"
 Frequencies --  1006.6714              1186.7527              1186.7527
 Red. masses --     3.8735                 1.4615                 1.4615
 Frc consts  --     2.3127                 1.2127                 1.2127
 IR Inten    --     0.0000                 0.0000                 0.0000
 Raman Activ --     0.0000                 0.0000                 0.0000

                     7                      8                      9
                    A2"                    A1'                    E"
 Frequencies --  1431.7079              1474.7136              1532.9915
 Red. masses --     1.1971                 1.1815                 1.0199
 Frc consts  --     1.4457                 1.5139                 1.4121
 IR Inten    --     0.2038                 0.0000                 0.0000
 Raman Activ --     0.0000                 0.0000                 0.0000

                    10                     11                     12
                    E"                     E'                     E'
 Frequencies --  1532.9915              1542.7873              1542.7874
 Red. masses --     1.0199                 1.0611                 1.0611
 Frc consts  --     1.4121                 1.4880                 1.4880
 IR Inten    --     0.0000                 8.8187                 8.8188
 Raman Activ --     0.0000                 0.0000                 0.0000

                    13                     14                     15
                    A2"                    A1'                    E"
 Frequencies --  3055.3287              3062.0361              3108.3414
 Red. masses --     1.0350                 1.0382                 1.1032
 Frc consts  --     5.6925                 5.7350                 6.2802
 IR Inten    --    61.5692                 0.0000                 0.0000
 Raman Activ --     0.0000                 0.0000                 0.0000

                    16                     17                     18
                    E"                     E'                     E'
 Frequencies --  3108.3414              3129.6825              3129.6825
 Red. masses --     1.1032                 1.1019                 1.1019
 Frc consts  --     6.2802                 6.3592                 6.3592
 IR Inten    --     0.0000                62.1212                62.1212
 Raman Activ --     0.0000                 0.0000                 0.0000

 - Thermochemistry -
 -------------------
 Temperature   298.150 Kelvin.  Pressure   1.00000 Atm.
 Atom  1 has atomic number  1 and mass   1.00783

 Molecular mass:    30.04695 amu.
 Principal axes and moments of inertia in atomic units:
                           1         2         3
     EIGENVALUES --    22.32026  92.31856  92.31856
           X            0.00000   0.06696   0.99776
           Y            0.00000   0.99776  -0.06696
           Z            1.00000   0.00000   0.00000
 THIS MOLECULE IS A PROLATE SYMMETRIC TOP.
 ROTATIONAL SYMMETRY NUMBER  6.
 ROTATIONAL TEMPERATURES (KELVIN)      3.88048     0.93820     0.93820
 ROTATIONAL CONSTANTS (GHZ)           80.85664    19.54906    19.54906
    1 IMAGINARY FREQUENCIES IGNORED.
 Zero-point vibrational energy     196513.1 (Joules/Mol)
                                   46.96775 (Kcal/Mol)
 VIBRATIONAL TEMPERATURES:   1311.33  1311.33  1448.37  1707.46  1707.46
          (KELVIN)           2059.90  2121.77  2205.62  2205.62  2219.71
                             2219.71  4395.91  4405.56  4472.18  4472.18
                             4502.89  4502.89

 Zero-point correction=                           0.074848 (Hartree/Particle)
 Thermal correction to Energy=                    0.077884
 Thermal correction to Enthalpy=                  0.078828
 Thermal correction to Gibbs Free Energy=         0.053661
 Sum of electronic and zero-point Energies=            -79.751079
 Sum of electronic and thermal Energies=               -79.748043
 Sum of electronic and thermal Enthalpies=             -79.747098
 Sum of electronic and thermal Free Energies=          -79.772266

                     E (Thermal)             CV                S
                      KCAL/MOL        CAL/MOL-KELVIN    CAL/MOL-KELVIN
 TOTAL                   48.873              8.168             52.969
 ELECTRONIC               0.000              0.000              0.000
 TRANSLATIONAL            0.889              2.981             36.134
 ROTATIONAL               0.889              2.981             16.321
 VIBRATIONAL             47.095              2.207              0.514
                       Q            LOG10(Q)             LN(Q)
 TOTAL BOT       0.207921D-24        -24.682102        -56.875922
 TOTAL V=0       0.556282D+10          9.745295         22.396089
 VIB (BOT)       0.390302D-34        -34.408600        -79.228728
 VIB (V=0)       0.104423D+01          0.018797          0.043282
 ELECTRONIC      0.100000D+01          0.000000          0.000000
 TRANSLATIONAL   0.647383D+07          6.811161         15.683278
 ROTATIONAL      0.822881D+03          2.915337          6.712811
 ***** Axes restored to original set *****
 -------------------------------------------------------------------
 Center     Atomic                   Forces (Hartrees/Bohr)
 Number     Number              X              Y              Z
 -------------------------------------------------------------------
    1          1           0.000000084    0.000000146    0.000000295
    2          6          -0.000000150   -0.000000259    0.000000106
    3          1          -0.000000250    0.000000146   -0.000000178
    4          6           0.000000150    0.000000259   -0.000000106
    5          1           0.000000252   -0.000000143   -0.000000178
    6          1          -0.000000307    0.000000047   -0.000000137
    7          1           0.000000027    0.000000047    0.000000335
    8          1           0.000000194   -0.000000243   -0.000000137
 -------------------------------------------------------------------
 Cartesian Forces:  Max     0.000000335 RMS     0.000000193
 Internal  Forces:  Max     0.000000288 RMS     0.000000179

 GradGradGradGradGradGradGradGradGradGradGradGradGradGradGradGradGradGrad
 Berny optimization.
 Search for a saddle point.
 Step number   1 out of a maximum of  38
 All quantities printed in internal units (Hartrees-Bohrs-Radians)
 Second derivative matrix not updated -- analytic derivatives used.
     Eigenvalues ---   -0.00218   0.04695   0.04695   0.04947   0.04947
     Eigenvalues ---    0.12302   0.12622   0.14155   0.14155   0.17261
     Eigenvalues ---    0.17261   0.31339   0.33608   0.33608   0.33939
     Eigenvalues ---    0.33939   0.34737   0.349131000.000001000.00000
     Eigenvalues --- 1000.000001000.000001000.000001000.000001000.00000
     Eigenvalues --- 1000.000001000.000001000.00000
 Eigenvectors required to have negative eigenvalues:
                          R1        R2        R3        R4        R5
         1              0.00000   0.00000   0.00000   0.00000   0.00000
                          R6        R7        A1        A2        A3
         1              0.00000   0.00000   0.00000   0.00000   0.00000
                          A4        A5        A6        A7        A8
         1              0.00000   0.00000   0.00000   0.00000   0.00000
                          A9        A10       A11       A12       D1
         1              0.00000   0.00000   0.00000   0.00000   0.33333
                          D2        D3        D4        D5        D6
         1              0.33333   0.33333   0.33333   0.33333   0.33333
                          D7        D8        D9
         1              0.33333   0.33333   0.33333
 Angle between quadratic step and forces=  27.87 degrees.
 Linear search not attempted -- option 19 set.
 Iteration  1 RMS(Cart)=  0.00000103 RMS(Int)=  0.00000000
 TrRot=  0.000000  0.000000  0.000000  0.000000  0.000000  0.000000
 Variable       Old X    -DE/DX   Delta X   Delta X   Delta X     New X
                                 (Linear)    (Quad)   (Total)
    R1        2.06935   0.00000   0.00000   0.00000   0.00000   2.06935
    R2        2.06935   0.00000   0.00000   0.00000   0.00000   2.06935
    R3        2.91921   0.00000   0.00000   0.00000   0.00000   2.91921
    R4        2.06935   0.00000   0.00000   0.00000   0.00000   2.06935
    R5        2.06935   0.00000   0.00000   0.00000   0.00000   2.06935
    R6        2.06935   0.00000   0.00000   0.00000   0.00000   2.06935
    R7        2.06935   0.00000   0.00000   0.00000   0.00000   2.06935
    A1        1.86812   0.00000   0.00000   0.00000   0.00000   1.86812
    A2        1.95144   0.00000   0.00000   0.00000   0.00000   1.95144
    A3        1.95144   0.00000   0.00000   0.00000   0.00000   1.95144
    A4        1.86812   0.00000   0.00000   0.00000   0.00000   1.86812
    A5        1.86812   0.00000   0.00000   0.00000   0.00000   1.86812
    A6        1.95144   0.00000   0.00000   0.00000   0.00000   1.95144
    A7        1.95144   0.00000   0.00000   0.00000   0.00000   1.95144
    A8        1.95144   0.00000   0.00000   0.00000   0.00000   1.95144
    A9        1.86812   0.00000   0.00000   0.00000   0.00000   1.86812
   A10        1.95144   0.00000   0.00000   0.00000   0.00000   1.95144
   A11        1.86812   0.00000   0.00000   0.00000   0.00000   1.86812
   A12        1.86812   0.00000   0.00000   0.00000   0.00000   1.86812
    D1        2.09440   0.00000   0.00000   0.00000   0.00000   2.09440
    D2        0.00000   0.00000   0.00000   0.00000   0.00000   0.00000
    D3       -2.09440   0.00000   0.00000   0.00000   0.00000  -2.09440
    D4        0.00000   0.00000   0.00000   0.00000   0.00000   0.00000
    D5       -2.09440   0.00000   0.00000   0.00000   0.00000  -2.09440
    D6        2.09440   0.00000   0.00000   0.00000   0.00000   2.09440
    D7       -2.09440   0.00000   0.00000   0.00000   0.00000  -2.09440
    D8        2.09440   0.00000   0.00000   0.00000   0.00000   2.09440
    D9        0.00000   0.00000   0.00000   0.00000   0.00000   0.00000
         Item               Value     Threshold  Converged?
 Maximum Force            0.000000     0.000002     YES
 RMS     Force            0.000000     0.000001     YES
 Maximum Displacement     0.000002     0.000006     YES
 RMS     Displacement     0.000001     0.000004     YES
 Predicted change in Energy=-2.141641D-12
 Optimization completed.
    -- Stationary point found.
                         ----------------------------
                         !   Optimized Parameters   !
                         ! (Angstroms and Degrees)  !
 ------------------------                            -------------------------
 ! Name  Definition              Value          Derivative Info.             !
 -----------------------------------------------------------------------------
 ! R1    R(2,1)                  1.0951         -DE/DX =    0.               !
 ! R2    R(3,2)                  1.0951         -DE/DX =    0.               !
 ! R3    R(4,2)                  1.5448         -DE/DX =    0.               !
 ! R4    R(5,2)                  1.0951         -DE/DX =    0.               !
 ! R5    R(6,4)                  1.0951         -DE/DX =    0.               !
 ! R6    R(7,4)                  1.0951         -DE/DX =    0.               !
 ! R7    R(8,4)                  1.0951         -DE/DX =    0.               !
 ! A1    A(1,2,3)              107.0355         -DE/DX =    0.               !
 ! A2    A(1,2,4)              111.8091         -DE/DX =    0.               !
 ! A3    A(3,2,4)              111.8091         -DE/DX =    0.               !
 ! A4    A(1,2,5)              107.0355         -DE/DX =    0.               !
 ! A5    A(3,2,5)              107.0355         -DE/DX =    0.               !
 ! A6    A(4,2,5)              111.8091         -DE/DX =    0.               !
 ! A7    A(2,4,6)              111.8091         -DE/DX =    0.               !
 ! A8    A(2,4,7)              111.8091         -DE/DX =    0.               !
 ! A9    A(6,4,7)              107.0355         -DE/DX =    0.               !
 ! A10   A(2,4,8)              111.8091         -DE/DX =    0.               !
 ! A11   A(6,4,8)              107.0355         -DE/DX =    0.               !
 ! A12   A(7,4,8)              107.0355         -DE/DX =    0.               !
 ! D1    D(6,4,2,1)            120.             -DE/DX =    0.               !
 ! D2    D(6,4,2,3)              0.             -DE/DX =    0.               !
 ! D3    D(6,4,2,5)           -120.             -DE/DX =    0.               !
 ! D4    D(7,4,2,1)              0.             -DE/DX =    0.               !
 ! D5    D(7,4,2,3)           -120.             -DE/DX =    0.               !
 ! D6    D(7,4,2,5)            120.             -DE/DX =    0.               !
 ! D7    D(8,4,2,1)           -120.             -DE/DX =    0.               !
 ! D8    D(8,4,2,3)            120.             -DE/DX =    0.               !
 ! D9    D(8,4,2,5)              0.             -DE/DX =    0.               !
 -----------------------------------------------------------------------------
 GradGradGradGradGradGradGradGradGradGradGradGradGradGradGradGradGradGrad

 **********************************************************************

            Population analysis using the SCF density.

 **********************************************************************

 Orbital Symmetries:
       Occupied  (A1') (A2") (A1') (A2") (?A) (?A) (A1') (?B) (?B)
       Virtual   (A1') (E') (E') (A2") (E") (E") (A2") (A1') (E')
                 (E') (A2") (?C) (?C) (E') (E') (?C) (?C) (A1')
                 (A2") (A1') (A2") (?A) (?A) (A1') (?B) (?B) (?A)
                 (?A) (?B) (?B) (A2") (A1') (A2")
 Unable to determine electronic state: an orbital has unidentified symmetry.
 Alpha  occ. eigenvalues --  -10.17187 -10.17168  -0.74410  -0.61360  -0.42860
 Alpha  occ. eigenvalues --   -0.42860  -0.36243  -0.33812  -0.33812
 Alpha virt. eigenvalues --    0.10541   0.13529   0.13529   0.15445   0.23692
 Alpha virt. eigenvalues --    0.23692   0.24201   0.51853   0.53488   0.53488
 Alpha virt. eigenvalues --    0.66581   0.68991   0.68991   0.85845   0.85845
 Alpha virt. eigenvalues --    0.91521   0.91521   0.91690   0.97774   1.03890
 Alpha virt. eigenvalues --    1.46790   1.49014   1.49014   1.91572   2.05995
 Alpha virt. eigenvalues --    2.05995   2.12851   2.12851   2.41937   2.41937
 Alpha virt. eigenvalues --    2.57871   4.13144   4.38547
          Condensed to atoms (all electrons):
              1          2          3          4          5          6
  1  H    0.568453   0.385582  -0.032159  -0.033539  -0.032159   0.003072
  2  C    0.385582   5.030939   0.385582   0.355782   0.385582  -0.033539
  3  H   -0.032159   0.385582   0.568453  -0.033539  -0.032159  -0.009938
  4  C   -0.033539   0.355782  -0.033539   5.030939  -0.033539   0.385582
  5  H   -0.032159   0.385582  -0.032159  -0.033539   0.568453   0.003072
  6  H    0.003072  -0.033539  -0.009938   0.385582   0.003072   0.568453
  7  H   -0.009938  -0.033539   0.003072   0.385582   0.003072  -0.032159
  8  H    0.003072  -0.033539   0.003072   0.385582  -0.009938  -0.032159
              7          8
  1  H   -0.009938   0.003072
  2  C   -0.033539  -0.033539
  3  H    0.003072   0.003072
  4  C    0.385582   0.385582
  5  H    0.003072  -0.009938
  6  H   -0.032159  -0.032159
  7  H    0.568453  -0.032159
  8  H   -0.032159   0.568453
 Total atomic charges:
              1
  1  H    0.147617
  2  C   -0.442850
  3  H    0.147617
  4  C   -0.442850
  5  H    0.147617
  6  H    0.147617
  7  H    0.147617
  8  H    0.147617
 Sum of Mulliken charges=   0.00000
 Atomic charges with hydrogens summed into heavy atoms:
              1
  1  H    0.000000
  2  C    0.000000
  3  H    0.000000
  4  C    0.000000
  5  H    0.000000
  6  H    0.000000
  7  H    0.000000
  8  H    0.000000
 Sum of Mulliken charges=   0.00000
 Electronic spatial extent (au):  <R**2>=   110.6307
 Charge=     0.0000 electrons
 Dipole moment (Debye):
    X=     0.0000    Y=     0.0000    Z=     0.0000  Tot=     0.0000
 Quadrupole moment (Debye-Ang):
   XX=   -14.6937   YY=   -14.6937   ZZ=   -15.1655
   XY=     0.0000   XZ=     0.0000   YZ=     0.0000
 Octapole moment (Debye-Ang**2):
  XXX=     0.0000  YYY=     0.9332  ZZZ=     0.0000  XYY=     0.0000
  XXY=    -0.9332  XXZ=     0.0000  XZZ=     0.0000  YZZ=     0.0000
  YYZ=     0.0000  XYZ=     0.0000
 Hexadecapole moment (Debye-Ang**3):
 XXXX=   -28.3903 YYYY=   -28.3903 ZZZZ=   -93.9922 XXXY=     0.0000
 XXXZ=     0.0000 YYYX=     0.0000 YYYZ=     0.0000 ZZZX=     0.0000
 ZZZY=     0.0000 XXYY=    -9.4634 XXZZ=   -19.3385 YYZZ=   -19.3385
 XXYZ=     0.0000 YYXZ=     0.0000 ZZXY=     0.0000
 N-N= 4.194091919741D+01 E-N=-2.676944638832D+02  KE= 7.897013362280D+01
 Symmetry A1   KE= 3.861357177873D+01
 Symmetry A2   KE= 2.102686272704D+00
 Symmetry B1   KE= 1.808296237236D+00
 Symmetry B2   KE= 3.644557933412D+01
  Exact polarizability:  21.959   0.000  21.959   0.000   0.000  23.442
 Approx polarizability:  28.022   0.000  28.022   0.000   0.000  26.580
 1\1\GINC-GANDALF3\Freq\RB3LYP\6-31G(d)\C2H6\PEO\25-Nov-1996\0\\#N GEOM
 =ALLCHECK GUESS=READ RB3LYP/6-31G(D) FREQ\\Basic Ethane rotation TS\\0
 ,1\H,0.38644282,0.6693386775,-1.3516038399\C,0.3641081504,0.6306535798
 ,-0.2574630775\H,1.4031188699,0.6693380553,0.0861931727\C,-0.364108150
 4,-0.6306535798,0.2574630775\H,-0.1218949823,1.5498056531,0.0861934419
 \H,0.2913410649,-1.2563168686,0.8723379896\H,-0.7253349851,-1.25631624
 64,-0.5654590231\H,-1.2336727874,-0.3758492709,0.8723382588\\Version=S
 GI-G94RevD.1\HF=-79.8259265\RMSD=3.015e-10\RMSF=1.930e-07\Dipole=0.,0.
 ,0.\DipoleDeriv=0.0523958,-0.0249639,0.0063268,-0.0249639,0.02357,0.01
 09585,0.0240529,0.0416609,-0.1698707,0.0946411,-0.0025492,0.0010408,-0
 .0025492,0.0916975,0.0018027,0.001041,0.0018031,0.0953762,-0.1547222,-
 0.0475997,-0.0491744,-0.0186531,0.0235701,0.0198834,-0.0669003,0.00964
 91,0.0372471,0.0946409,-0.0025495,0.0010406,-0.0025495,0.091697,0.0018
 023,0.0010404,0.001802,0.0953769,0.0076854,0.0751129,0.0418067,0.04616
 63,-0.1388374,-0.0326447,0.0418065,-0.0531129,0.0372471,-0.029184,0.06
 83222,-0.0757773,0.0393757,-0.0517528,0.0865253,-0.0580511,0.0967594,-
 0.0129681,0.0272882,-0.0684514,-0.0380851,-0.0684514,-0.0517526,-0.065
 9653,-0.0558112,-0.0966677,-0.0694406,-0.0927451,0.0026787,0.1128218,0
 .0316252,0.0118084,-0.0223624,0.1128217,-0.0018941,-0.0129682\Polar=22
 .2884393,0.5708426,22.947591,-0.2330424,-0.4036411,22.1236656\PG=D03H
 [C3(C1.C1),3SGV(H2)]\NImag=1\\0.04920710,0.00343296,0.05317114,-0.0035
 7774,-0.00619691,0.34007065,-0.04908174,0.00094637,0.00317022,0.548220
 09,0.00094637,-0.04798897,0.00549105,-0.03671053,0.50583045,0.00269412
 ,0.00466643,-0.31496297,0.01498707,0.02595836,0.55881749,0.00192041,0.
 00037258,-0.00011666,-0.28726361,-0.00486145,-0.08103977,0.31000124,-0
 .00033883,-0.00060745,-0.00051498,-0.00408396,-0.04798900,-0.00244767,
 0.00698667,0.05317113,-0.03376979,0.00049113,-0.01006026,-0.08151589,-
 0.00272256,-0.07678111,0.08862691,-0.00117104,0.07927651,-0.00186204,-
 0.00075329,-0.00002349,-0.10133051,-0.04482058,0.01829786,-0.01100080,
 -0.02531037,0.01211456,0.54822005,-0.00075329,-0.00273187,-0.00004069,
 -0.04482058,-0.15308482,0.03169281,-0.00021270,-0.00273185,0.00072378,
 -0.03671059,0.50583033,0.01534563,0.02657939,-0.00672597,0.01829794,0.
 03169296,-0.08839195,-0.00325455,-0.00814959,0.00241280,0.01498697,0.0
 2595819,0.55881764,0.00000990,-0.00144187,-0.00038766,-0.10393407,0.10
 176126,0.03840014,-0.01425960,0.02686078,0.01226520,0.00625273,-0.0153
 4905,-0.00543048,0.11132791,-0.00073045,0.00130306,-0.00035852,0.10098
 377,-0.23131850,-0.07140641,0.00009454,0.00130304,0.00080818,0.0097486
 2,-0.01998538,-0.00689332,-0.10771728,0.25184442,0.01731022,-0.0289999
 4,-0.01006027,0.03840013,-0.07195618,-0.07678115,-0.00543269,0.0110260
 6,0.00420925,-0.00543046,0.01085341,0.00241280,-0.04532759,0.07616771,
 0.07927656,-0.00070310,-0.00187566,0.00123145,0.00948289,-0.01111886,0
 .01066616,0.00202605,-0.00016856,0.00030563,-0.14798757,0.09240925,-0.
 09136414,-0.00027726,-0.00176291,0.00071058,0.16055605,-0.00068156,-0.
 00266205,0.00045851,0.01397880,-0.01502207,0.01326742,0.00019631,0.001
 81629,-0.00015272,0.09163176,-0.13155467,0.08256624,-0.00158725,-0.002
 56614,0.00183619,-0.09655192,0.14283832,0.00080117,0.00167549,-0.00018
 395,-0.00470296,0.00439405,-0.00578067,0.00008219,-0.00028172,0.001655
 13,-0.09088802,0.08284113,-0.13249149,0.00030205,0.00013493,-0.0007057
 0,0.09919423,-0.09268712,0.13905452,0.00157447,0.00020942,-0.00007747,
 -0.00595879,-0.00784906,-0.01016242,-0.00088043,-0.00220489,0.00073848
 ,-0.07693696,-0.04730025,-0.06576792,-0.00097634,-0.00071485,0.0000548
 9,-0.00668590,-0.01275041,-0.01704738,0.07909615,0.00020942,0.00181629
 ,-0.00013418,-0.00784906,-0.01502209,-0.01760182,-0.00065948,-0.002662
 05,0.00048975,-0.04730025,-0.13155448,-0.11391328,-0.00226026,-0.00256
 614,0.00088441,0.00533089,0.01230200,0.01540863,0.05520227,0.14283813,
 0.00014597,0.00025282,0.00210672,0.00520670,0.00901825,0.00966100,0.00
 116875,0.00120989,-0.00000663,-0.06624402,-0.11473790,-0.20354223,0.00
 046342,0.00161711,-0.00000663,-0.00466792,-0.01016220,-0.01436341,0.07
 039388,0.12192566,0.22051460,-0.00106500,-0.00089051,-0.00021864,-0.01
 013423,0.00265286,0.00615685,-0.00054326,-0.00174083,0.00123490,-0.215
 35488,0.05273720,0.11718654,0.00185671,0.00009854,-0.00028507,-0.01641
 118,0.00576426,0.01225873,0.01076779,-0.00267354,-0.00646678,0.2308840
 5,-0.00208460,-0.00230015,0.00129572,-0.02244480,0.00459504,0.01587088
 ,-0.00191648,-0.00230015,0.00153348,0.05351469,-0.06418728,-0.03784060
 ,-0.00026633,0.00198563,0.00018832,0.01373778,-0.00515168,-0.01148538,
 0.01540776,-0.00515167,-0.00912364,-0.05594800,0.07251024,0.00105043,0
 .00153158,-0.00018395,0.00615684,-0.00187586,-0.00578067,-0.00003418,0
 .00032905,-0.00070570,0.11718655,-0.03729082,-0.13249156,-0.00028507,-
 0.00006968,0.00165514,-0.01607598,0.00487368,0.01281555,0.02186795,-0.
 00705916,-0.01436342,-0.12986653,0.03956122,0.13905460\\-0.00000008,-0
 .00000015,-0.00000029,0.00000015,0.00000026,-0.00000011,0.00000025,-0.
 00000015,0.00000018,-0.00000015,-0.00000026,0.00000011,-0.00000025,0.0
 0000014,0.00000018,0.00000031,-0.00000005,0.00000014,-0.00000003,-0.00
 000005,-0.00000034,-0.00000019,0.00000024,0.00000014\\\@

 IF THE FACTS DO NOT CONFORM TO THE THEORY, THEY MUST BE DISPOSED OF.
 Job cpu time:  0 days  0 hours 18 minutes  0.7 seconds.
 File lengths (MBytes):  RWF=    5 Int=    0 D2E=    0 Chk=    2 Scr=    1
 Normal termination of Gaussian 94

SPARTAN PROPERTIES PACKAGE:  SGI/R8K  Release 4.1 a3
  (Job run on gandalf3)

Basic Ethane rotation TS

  Model: RB3LYP  /6-31G(d)
  Number of shells:  20
    14 S shells
     4 SP shells
     2 6D shells
  Number of basis functions:  42
  Use of molecular symmetry enabled
  Molecular charge:   0
  Spin multiplicity:  1

                Cartesian Coordinates (Angstroms)
    Atom          X             Y             Z
    ----    ------------- ------------- -------------

    H    1     0.0000000     1.0166755     1.1792174
    C    2     0.0000000     0.0000000     0.7723894
    H    3     0.8804669    -0.5083378     1.1792174
    C    4     0.0000000     0.0000000    -0.7723894
    H    5    -0.8804669    -0.5083378     1.1792174
    H    6     0.8804669    -0.5083378    -1.1792174
    H    7     0.0000000     1.0166755    -1.1792174
    H    8    -0.8804669    -0.5083378    -1.1792174

  Point Group = DNH Order =  3 Nsymop = 12
  This system has   3 degrees of freedom

  E(HF)  =     -79.825926453

   1 imaginary frequencies ignored

  Zero-point vibrational energy is    46.969 kcal/mol

  Standard Thermodynamic quantities at   298.15 K  and     1.00 atm

  Translational Enthalpy:        0.889 kcal/mol
  Rotational Enthalpy:           0.889 kcal/mol
  Vibrational Enthalpy:         47.097 kcal/mol

  Translational Entropy:        36.134  cal/mol.K
  Rotational Entropy:           16.320  cal/mol.K
  Vibrational Entropy:           0.514  cal/mol.K

    ** Property archive file written to unit 12 **

  Total Cpu time:    0 mins.  0.16 secs.
  Total Wall time:   0 mins.  0.19 secs.
